 Gaussian 09, Revision D.01,
 Gaussian 09:  AS64L-G09RevD.01 24-Apr-2013

 -------------------------------------------------------
 #P hf/6-31G* Opt=(Tight,CalcFC) Freq SCF(Conver=8) Test
 -------------------------------------------------------

 -------------------------------------------------
 Gaussian optimization output to be used by R.E.D.
 -------------------------------------------------
 Symbolic Z-matrix:
 Charge =  0 Multiplicity = 1

 SCF Done:  E(RHF) =  -1079.56698710     A.U. after   17 cycles

  Exact polarizability:   0.000   0.000   0.000   0.000   0.000   0.000
 Approx polarizability: 246.875  -7.894 179.477  -3.821  10.928 113.022

 SCF Done:  E(RHF) =  -1079.65558765     A.U. after   15 cycles
 SCF Done:  E(RHF) =  -1079.70235182     A.U. after   15 cycles
 SCF Done:  E(RHF) =  -1079.70881828     A.U. after   18 cycles
 SCF Done:  E(RHF) =  -1079.71581849     A.U. after   18 cycles
 SCF Done:  E(RHF) =  -1079.72636422     A.U. after   16 cycles
 SCF Done:  E(RHF) =  -1079.73001677     A.U. after   16 cycles
 SCF Done:  E(RHF) =  -1079.72121139     A.U. after   15 cycles
 SCF Done:  E(RHF) =  -1079.73316742     A.U. after   15 cycles
 SCF Done:  E(RHF) =  -1079.71937477     A.U. after   14 cycles
 SCF Done:  E(RHF) =  -1079.74350475     A.U. after    6 cycles
 SCF Done:  E(RHF) =  -1079.74350475     A.U. after    5 cycles
 SCF Done:  E(RHF) =  -1079.74350475     A.U. after    5 cycles
 SCF Done:  E(RHF) =  -1079.74350475     A.U. after    5 cycles
 SCF Done:  E(RHF) =  -1079.74350475     A.U. after    4 cycles
 SCF Done:  E(RHF) =  -1079.74350475     A.U. after    3 cycles
 SCF Done:  E(RHF) =  -1079.74350475     A.U. after    4 cycles
 SCF Done:  E(RHF) =  -1079.74350475     A.U. after    4 cycles
 SCF Done:  E(RHF) =  -1079.74350475     A.U. after    4 cycles
 SCF Done:  E(RHF) =  -1079.74350475     A.U. after    3 cycles
 Optimization completed.
    -- Stationary point found.

                         Standard orientation:
 ---------------------------------------------------------------------
 Center     Atomic      Atomic             Coordinates (Angstroms)
 Number     Number       Type             X           Y           Z
 ---------------------------------------------------------------------
      1          6           0        1.278752    0.370735   -0.200239
      2          7           0        0.008999    0.398920   -0.124802
      3          6           0       -0.438872   -0.915179   -0.344724
      4          6           0        0.749794   -1.774436   -0.556596
      5          8           0        0.842690   -2.948559   -0.765926
      6          7           0        1.804082   -0.887162   -0.449313
      7          6           0        3.189664   -1.258552   -0.642203
      8          1           0        3.682182   -0.540194   -1.276294
      9          1           0        3.182143   -2.223064   -1.135677
     10          6           0        3.983054   -1.400373    0.652278
     11          8           0        5.099090   -0.983708    0.705032
     12          6           0        2.166423    1.582644   -0.031599
     13          1           0        2.929595    1.329152    0.697747
     14          7           0        2.832845    1.841380   -1.296178
     15          1           0        2.199765    2.272764   -1.941248
     16          6           0        1.373490    2.773529    0.517641
     17          1           0        2.048839    3.608649    0.645058
     18          1           0        0.614524    3.065372   -0.203120
     19          8           0        0.815421    2.511640    1.768162
     20          1           0        0.098463    1.902151    1.645928
     21          6           0       -1.680327   -1.399638   -0.372647
     22          1           0       -1.732250   -2.459900   -0.551974
     23          6           0       -2.967853   -0.729118   -0.197773
     24          6           0       -3.117147    0.656071   -0.043105
     25          1           0       -2.248974    1.283553   -0.053930
     26          6           0       -4.120449   -1.509881   -0.190616
     27          1           0       -4.039116   -2.575670   -0.311891
     28          6           0       -4.359978    1.223649    0.116552
     29          1           0       -4.475191    2.284864    0.234031
     30          6           0       -5.375379   -0.951161   -0.028704
     31          1           0       -6.250604   -1.578214   -0.024813
     32          6           0       -5.496567    0.420236    0.126182
     33          8           0       -6.685699    1.030573    0.286632
     34          1           0       -7.393414    0.400918    0.280200
     35          6           0        3.322800   -2.099758    1.817439
     36          1           0        2.610894   -1.431597    2.293398
     37          1           0        2.776522   -2.976593    1.488431
     38          1           0        4.077747   -2.374936    2.540672
     39          6           0        4.083695    2.577397   -1.215798
     40          1           0        4.801971    1.998374   -0.647609
     41          1           0        4.477458    2.703898   -2.216738
     42          1           0        3.999348    3.561956   -0.757832
 ---------------------------------------------------------------------

 The electronic state is 1-A.
 Alpha  occ. eigenvalues --  -20.60680 -20.56446 -20.55747 -20.54692 -15.62194
 Alpha  occ. eigenvalues --  -15.56933 -15.56753 -11.36162 -11.33854 -11.33836
 Alpha  occ. eigenvalues --  -11.31710 -11.28411 -11.28012 -11.27941 -11.26827
 Alpha  occ. eigenvalues --  -11.26619 -11.25569 -11.25558 -11.24778 -11.24665
 Alpha  occ. eigenvalues --  -11.24079 -11.23380 -11.23153  -1.42718  -1.41973
 Alpha  occ. eigenvalues --   -1.40930  -1.37114  -1.34458  -1.23444  -1.21718
 Alpha  occ. eigenvalues --   -1.16963  -1.08751  -1.04394  -1.03632  -1.03263
 Alpha  occ. eigenvalues --   -0.99957  -0.98215  -0.92762  -0.91120  -0.87117
 Alpha  occ. eigenvalues --   -0.85296  -0.82371  -0.79917  -0.78571  -0.75257
 Alpha  occ. eigenvalues --   -0.74871  -0.72530  -0.69743  -0.68227  -0.68094
 Alpha  occ. eigenvalues --   -0.67403  -0.66545  -0.65318  -0.64623  -0.63924
 Alpha  occ. eigenvalues --   -0.62593  -0.61859  -0.60983  -0.60894  -0.60355
 Alpha  occ. eigenvalues --   -0.60178  -0.59800  -0.58858  -0.57713  -0.56590
 Alpha  occ. eigenvalues --   -0.56176  -0.55294  -0.54232  -0.53891  -0.53370
 Alpha  occ. eigenvalues --   -0.51490  -0.50948  -0.50325  -0.50080  -0.49885
 Alpha  occ. eigenvalues --   -0.48656  -0.45875  -0.45108  -0.41630  -0.40681
 Alpha  occ. eigenvalues --   -0.37955  -0.36452  -0.35294  -0.29044
 Alpha virt. eigenvalues --    0.05952   0.13240   0.15485   0.16976   0.20148
 Alpha virt. eigenvalues --    0.21210   0.22142   0.22744   0.23138   0.24649
 Alpha virt. eigenvalues --    0.25712   0.27418   0.28169   0.28887   0.29111

 Mulliken charges:
               1
     1  C    0.691336
     2  N   -0.695496
     3  C    0.119898
     4  C    0.805020
     5  O   -0.614183
     6  N   -0.814002
     7  C   -0.230697
     8  H    0.260006
     9  H    0.245870
    10  C    0.524098
    11  O   -0.522199
    12  C   -0.079185
    13  H    0.212240
    14  N   -0.721477
    15  H    0.353371
    16  C    0.020382
    17  H    0.179371
    18  H    0.153837
    19  O   -0.757087
    20  H    0.468124
    21  C   -0.193837
    22  H    0.248043
    23  C   -0.017700
    24  C   -0.185528
    25  H    0.258735
    26  C   -0.190937
    27  H    0.218735
    28  C   -0.253608
    29  H    0.225654
    30  C   -0.296271
    31  H    0.201182
    32  C    0.424957
    33  O   -0.748290
    34  H    0.461171
    35  C   -0.588992
    36  H    0.196546
    37  H    0.209372
    38  H    0.210832
    39  C   -0.301244
    40  H    0.193513
    41  H    0.179975
    42  H    0.148466
 Sum of Mulliken charges =   0.00000

 Dipole moment (field-independent basis, Debye):
    X=             -3.2436    Y=              0.4705    Z=             -1.4032  Tot=              3.5653
 Quadrupole moment (field-independent basis, Debye-Ang):
   XX=           -123.7769   YY=           -136.5786   ZZ=           -139.3215
   XY=             16.5428   XZ=             -5.0073   YZ=            -11.0612

 Normal termination of Gaussian 09 at Sat Oct 18 16:25:56 2014.
